   * xtb version 6.4.0 (d4b70c2) compiled by 'ehlert@majestix' on 2021-02-01
          program call               : xtb cyclohexane-chair.xyz --gbsa toluene --ohess
          number of atoms            :                    18
          number of electrons        :                    36
          charge                     :                     0

   ID    Z sym.   atoms
    1    6 C      1-3, 6, 9, 12
    2    1 H      4, 5, 7, 8, 10, 11, 13-18

        Solvent                        toluene
        Solvent mass                       9.2140E+01 g/mol
          :  Hamiltonian                  GFN2-xTB          :
 * total energy  :   -18.9924892 Eh     change       -0.3698375E-11 Eh
   *** GEOMETRY OPTIMIZATION CONVERGED AFTER 1 ITERATIONS ***

 final structure:
================
18
 xtb: 6.4.0 (d4b70c2)
C         0.08084982770000   -1.44584824550000   -0.24121474590000
C        -1.21181019190000   -0.79299034230000    0.24134426080000
C        -0.08102526640000    1.44584564450000    0.24113630530000
H        -1.32326348710000    0.66814105660000   -1.33372801000000
H        -2.21148590500000    1.11696653790000    0.12532068600000
C         1.21187330480000    0.79310783600000   -0.24098013330000
H         2.21137692870000   -1.11687750430000   -0.12619163500000
H         1.32381226150000   -0.66869000160000    1.33347696670000
C        -1.29274500990000    0.65282382770000   -0.24132510460000
H         2.07290804090000    1.35664961260000    0.12645403660000
H         1.24119965170000    0.81234888750000   -1.33339073310000
C         1.29281095920000   -0.65295585810000    0.24100544850000
H         0.13839781260000   -2.47349521200000    0.12553061710000
H         0.08256721390000   -1.48009065110000   -1.33367824470000
H        -2.07310902230000   -1.35673226000000   -0.12510335260000
H        -1.24025674440000   -0.81160904970000    1.33381684350000
H        -0.08313374590000    1.48011812660000    1.33360012040000
H        -0.13846034360000    2.47347468430000   -0.12570249020000

          :  Hamiltonian                  GFN2-xTB          :
         :: gradient norm              0.000127918371 Eh/a0 ::
         :: HOMO-LUMO gap             13.652004367872 eV    ::
         :: SCC energy               -19.272622722780 Eh    ::
         :: -> dispersion             -0.011266815720 Eh    ::
         :: -> Gsolv                  -0.005777108412 Eh    ::
         :: repulsion energy           0.280105189675 Eh    ::

    * Orbital Energies and Occupations

         #    Occupation            Energy/Eh            Energy/eV
      -------------------------------------------------------------
         1        2.0000           -0.6297504             -17.1364
       ...           ...                  ...                  ...
         6        2.0000           -0.5461135             -14.8605
         7        2.0000           -0.5195500             -14.1377
         8        2.0000           -0.4958376             -13.4924
         9        2.0000           -0.4958280             -13.4922
        10        2.0000           -0.4918112             -13.3829
        11        2.0000           -0.4665629             -12.6958
        12        2.0000           -0.4621614             -12.5761
        13        2.0000           -0.4621411             -12.5755
        14        2.0000           -0.4349491             -11.8356
        15        2.0000           -0.4349399             -11.8353
        16        2.0000           -0.4175811             -11.3630
        17        2.0000           -0.4100074             -11.1569
        18        2.0000           -0.4099931             -11.1565 (HOMO)
        19                          0.0917088               2.4955 (LUMO)
        20                          0.1009616               2.7473
        21                          0.1009744               2.7477
        22                          0.1147603               3.1228
        23                          0.1148549               3.1254
        24                          0.1184171               3.2223
        25                          0.1402950               3.8176
        26                          0.1859314               5.0595
        27                          0.1859484               5.0599
        28                          0.1921316               5.2282
        29                          0.1994837               5.4282
       ...                                ...                  ...
        36                          0.3073840               8.3643
      -------------------------------------------------------------
                  HL-Gap            0.5017019 Eh           13.6520 eV

     #   Z          covCN         q      C6AA      α(0)
     1   6 C        3.805    -0.055    21.550     6.609
     2   6 C        3.805    -0.055    21.550     6.609
     3   6 C        3.805    -0.055    21.550     6.609
     4   1 H        0.924     0.030     2.589     2.516
     5   1 H        0.924     0.025     2.663     2.552
     6   6 C        3.805    -0.055    21.550     6.609
     7   1 H        0.924     0.025     2.663     2.552
     8   1 H        0.924     0.030     2.589     2.516
     9   6 C        3.805    -0.055    21.550     6.609
    10   1 H        0.924     0.025     2.663     2.552
    11   1 H        0.924     0.030     2.589     2.516
    12   6 C        3.805    -0.055    21.550     6.609
    13   1 H        0.924     0.025     2.663     2.552
    14   1 H        0.924     0.030     2.589     2.516
    15   1 H        0.924     0.025     2.663     2.552
    16   1 H        0.924     0.030     2.589     2.516
    17   1 H        0.924     0.030     2.589     2.516
    18   1 H        0.924     0.025     2.663     2.552

Wiberg/Mayer (AO) data.
largest (>0.10) Wiberg bond orders for each atom

     #   Z sym  total        # sym  WBO       # sym  WBO       # sym  WBO
 ---------------------------------------------------------------------------
     1   6 C    3.998 --     2 C    1.009    12 C    1.009    13 H    0.978
                            14 H    0.978
     2   6 C    3.998 --     9 C    1.009     1 C    1.009    15 H    0.978
                            16 H    0.978
     3   6 C    3.998 --     9 C    1.009     6 C    1.009    18 H    0.978
                            17 H    0.978
     4   1 H    0.999 --     9 C    0.978
     5   1 H    0.999 --     9 C    0.978
     6   6 C    3.998 --    12 C    1.009     3 C    1.009    10 H    0.978
                            11 H    0.978
     7   1 H    0.999 --    12 C    0.978
     8   1 H    0.999 --    12 C    0.978
     9   6 C    3.998 --     2 C    1.009     3 C    1.009     5 H    0.978
                             4 H    0.978
    10   1 H    0.999 --     6 C    0.978
    11   1 H    0.999 --     6 C    0.978
    12   6 C    3.998 --     6 C    1.009     1 C    1.009     7 H    0.978
                             8 H    0.978
    13   1 H    0.999 --     1 C    0.978
    14   1 H    0.999 --     1 C    0.978
    15   1 H    0.999 --     2 C    0.978
    16   1 H    0.999 --     2 C    0.978
    17   1 H    0.999 --     3 C    0.978
    18   1 H    0.999 --     3 C    0.978
 ---------------------------------------------------------------------------

molecular dipole:
                 x           y           z       tot (Debye)
 q only:        0.000      -0.000      -0.000
   full:        0.000       0.000      -0.000       0.000

 projected vibrational frequencies (cm⁻¹)
eigval :       -0.00    -0.00    -0.00     0.00     0.00     0.00
eigval :      231.50   232.22   374.73   418.64   418.91   539.41
eigval :      822.53   823.15   868.00   931.30   931.85   936.60
eigval :      937.21  1012.30  1062.58  1094.63  1095.68  1124.49
eigval :     1159.26  1178.10  1247.56  1249.73  1250.32  1250.92
eigval :     1331.37  1345.95  1347.70  1349.31  1358.98  1359.46
eigval :     1481.72  1482.34  1490.55  1490.76  1491.55  1507.32
eigval :     2953.34  2953.81  2954.11  2959.26  2960.44  2963.52
eigval :     2971.25  2971.74  2975.54  2976.32  2976.45  2981.86

   temp. (K)  partition function   enthalpy   heat capacity  entropy
                                   cal/mol     cal/K/mol   cal/K/mol   J/K/mol
 298.15  VIB   4.43                 1788.613     16.603      8.956
         ROT  0.209E+05              888.752      2.981     22.753
         INT  0.926E+05             2677.365     19.583     31.708
         TR   0.747E+27             1481.254      4.968     39.186
         TOT                        4158.6193    24.5516    70.8946   296.6228

       T/K    H(0)-H(T)+PV         H(T)/Eh          T*S/Eh         G(T)/Eh
   ------------------------------------------------------------------------
    298.15    0.662718E-02    0.174816E+00    0.336843E-01    0.141132E+00
   ------------------------------------------------------------------------

         :::::::::::::::::::::::::::::::::::::::::::::::::::::
         ::                  THERMODYNAMIC                  ::
         :::::::::::::::::::::::::::::::::::::::::::::::::::::
         :: total free energy         -18.851357705159 Eh   ::
         ::.................................................::
         :: total energy              -18.992489235467 Eh   ::
         :: zero point energy           0.168188638209 Eh   ::
         :: G(RRHO) w/o ZPVE           -0.027057107900 Eh   ::
         :: G(RRHO) contrib.            0.141131530309 Eh   ::
         :::::::::::::::::::::::::::::::::::::::::::::::::::::

           -------------------------------------------------
          | TOTAL ENERGY              -18.992489235467 Eh   |
          | TOTAL ENTHALPY            -18.817673415567 Eh   |
          | TOTAL FREE ENERGY         -18.851357705159 Eh   |
          | GRADIENT NORM               0.000127918818 Eh/α |
          | HOMO-LUMO GAP              13.652004367745 eV   |
           -------------------------------------------------

 * finished run on 2021/11/09 at 14:30:42.802
