   * xtb version 6.3.2 (30e43eb) compiled by 'schneider@apollo14' on 2020-08-08
          program call               : xtb final.xyz --chrg -1 --gbsa methanol --ohess
          number of atoms            :                    23
          number of electrons        :                    56
          charge                     :                    -1

   ID    Z sym.   atoms
    1    6 C      1-3, 5, 8, 11, 19
    2    1 H      4, 6, 7, 9, 10, 12-17, 21-23
    3   35 Br     18
    4    8 O      20

        Solvent                        methanol
        Solvent mass                       3.2040E+01 g/mol
          :  Hamiltonian                  GFN2-xTB          :
 * total energy  :   -30.6548690 Eh     change       -0.1065814E-13 Eh
   *** GEOMETRY OPTIMIZATION CONVERGED AFTER 1 ITERATIONS ***

 final structure:
================
23
 xtb: 6.3.2 (30e43eb)
C         1.71535771118491   -1.44701424863059    0.04330840840346
C         2.43980154682681   -0.12748305647263    0.29500225945587
C         1.68662090181792    0.70603542522153   -1.94796994628849
H        -0.07521680741010   -0.50796618374475   -1.74945320238344
C         1.74976404055383    1.00978821896349   -0.45344158519864
H         2.70323972880574    0.62112450575948   -2.33919273645959
H         1.17462860625475    1.51066752474957   -2.47968452089364
C         1.65661448086348   -1.74715101004054   -1.45198011278713
H         2.44745676790370    0.08900509602223    1.36488661059372
H         3.47516580739040   -0.21071711156085   -0.04407107923315
C         0.93208685920274   -0.60850851062790   -2.17666865623584
H         1.12616589463902   -2.68459302224044   -1.63145012569414
H         2.67388312136859   -1.84112230898591   -1.83790110923626
H         2.28596112723877    1.94729911162925   -0.29020493205221
H         0.73446090855662    1.13363637915148   -0.06579608362900
H         2.22495418223927   -2.26105988696485    0.56379037737183
H         0.69861146883587   -1.38217133432431    0.44005140762332
Br       -3.22688776781908    0.10357218455060    1.49769347573020
C         1.76469924021796   -1.13824396554443   -4.38697873223860
O         0.65747472546996   -0.87526097848469   -3.54793976854573
H         2.48493478653162   -0.31602394310709   -4.38159201646387
H         2.26813865488357   -2.06964132690472   -4.11102342223047
H         1.34543493218717   -1.23963336370367   -5.38651784789314

          :  Hamiltonian                  GFN2-xTB          :
         :: gradient norm              0.000999584346 Eh/a0 ::
         :: HOMO-LUMO gap              9.450834505172 eV    ::
         :: SCC energy               -30.980654372024 Eh    ::
         :: -> dispersion             -0.016045493135 Eh    ::
         :: -> Gsolv                  -0.116403500932 Eh    ::
         :: repulsion energy           0.325662496488 Eh    ::

    * Orbital Energies and Occupations

         #    Occupation            Energy/Eh            Energy/eV
      -------------------------------------------------------------
         1        2.0000           -0.7400434             -20.1376
       ...           ...                  ...                  ...
        16        2.0000           -0.4794549             -13.0466
        17        2.0000           -0.4722453             -12.8504
        18        2.0000           -0.4646426             -12.6436
        19        2.0000           -0.4553853             -12.3917
        20        2.0000           -0.4402656             -11.9802
        21        2.0000           -0.4343296             -11.8187
        22        2.0000           -0.4238675             -11.5340
        23        2.0000           -0.4229084             -11.5079
        24        2.0000           -0.4140803             -11.2677
        25        2.0000           -0.3876521             -10.5485
        26        2.0000           -0.3332491              -9.0682
        27        2.0000           -0.3331987              -9.0668
        28        2.0000           -0.3330834              -9.0637 (HOMO)
        29                          0.0142284               0.3872 (LUMO)
        30                          0.0742108               2.0194
        31                          0.0960453               2.6135
        32                          0.0970675               2.6413
        33                          0.1038102               2.8248
        34                          0.1139598               3.1010
        35                          0.1203983               3.2762
        36                          0.1272548               3.4628
        37                          0.1557404               4.2379
        38                          0.1699043               4.6233
        39                          0.1774892               4.8297
       ...                                ...                  ...
        55                          0.3105675               8.4510
      -------------------------------------------------------------
                  HL-Gap            0.3473118 Eh            9.4508 eV

     #   Z          covCN         q      C6AA      Î±(0)
     1   6 C        3.806    -0.056    21.583     6.614
     2   6 C        3.805    -0.060    21.658     6.625
     3   6 C        3.805    -0.067    21.781     6.644
     4   1 H        0.923     0.026     2.646     2.544
     5   6 C        3.806    -0.056    21.585     6.614
     6   1 H        0.924     0.043     2.409     2.427
     7   1 H        0.924     0.032     2.555     2.500
     8   6 C        3.805    -0.067    21.781     6.644
     9   1 H        0.924     0.033     2.548     2.496
    10   1 H        0.924     0.045     2.385     2.415
    11   6 C        3.741     0.113    18.802     6.186
    12   1 H        0.924     0.031     2.567     2.506
    13   1 H        0.924     0.045     2.387     2.416
    14   1 H        0.924     0.038     2.472     2.459
    15   1 H        0.924     0.022     2.697     2.568
    16   1 H        0.924     0.038     2.476     2.461
    17   1 H        0.924     0.023     2.695     2.567
    18  35 Br       0.000    -1.000   195.297    22.457
    19   6 C        3.635     0.035    20.364     6.494
    20   8 O        1.698    -0.359    20.050     6.046
    21   1 H        0.924     0.040     2.455     2.450
    22   1 H        0.924     0.039     2.467     2.456
    23   1 H        0.925     0.064     2.153     2.295

Wiberg/Mayer (AO) data.
largest (>0.10) Wiberg bond orders for each atom

     #   Z sym  total        # sym  WBO       # sym  WBO       # sym  WBO
 ---------------------------------------------------------------------------
     1   6 C    3.997 --     2 C    1.009     8 C    1.007    17 H    0.978
                            16 H    0.977
     2   6 C    3.998 --     1 C    1.009     5 C    1.009     9 H    0.978
                            10 H    0.977
     3   6 C    3.998 --     5 C    1.007    11 C    0.988     7 H    0.977
                             6 H    0.973
     4   1 H    0.999 --    11 C    0.961
     5   6 C    3.997 --     2 C    1.009     3 C    1.007    15 H    0.978
                            14 H    0.977
     6   1 H    0.998 --     3 C    0.973
     7   1 H    0.999 --     3 C    0.977
     8   6 C    3.998 --     1 C    1.007    11 C    0.989    12 H    0.977
                            13 H    0.974
     9   1 H    0.999 --     2 C    0.978
    10   1 H    0.998 --     2 C    0.977
    11   6 C    3.949 --     8 C    0.989     3 C    0.988    20 O    0.965
                             4 H    0.961
    12   1 H    0.999 --     8 C    0.977
    13   1 H    0.998 --     8 C    0.974
    14   1 H    0.999 --     5 C    0.977
    15   1 H    0.999 --     5 C    0.978
    16   1 H    0.999 --     1 C    0.977
    17   1 H    0.999 --     1 C    0.978
    18  35 Br   0.000 --    19   6 C    3.947 --    20 O    0.986    23 H    0.979    22 H    0.977
                            21 H    0.977
    20   8 O    2.053 --    19 C    0.986    11 C    0.965
    21   1 H    0.998 --    19 C    0.977
    22   1 H    0.998 --    19 C    0.977
    23   1 H    0.996 --    19 C    0.979
 ---------------------------------------------------------------------------

molecular dipole:
                 x           y           z       tot (Debye)
 q only:        6.822      -0.181      -2.580
   full:        6.767      -0.174      -2.502      18.344

 projected vibrational frequencies (cm-1)
eigval :       -0.00     0.00     0.00     0.00     0.00     0.00
eigval :        9.54    32.02    37.52    66.56   134.77   191.33
eigval :      237.35   288.05   338.03   342.63   394.82   442.35
eigval :      514.61   599.71   823.27   826.16   902.50   912.41
eigval :      932.02   952.26   971.45   996.95  1065.29  1082.41
eigval :     1088.62  1091.29  1122.05  1132.99  1141.53  1182.40
eigval :     1189.98  1235.94  1243.20  1247.09  1298.25  1311.65
eigval :     1334.83  1339.77  1353.76  1355.87  1356.28  1390.99
eigval :     1466.10  1474.85  1479.91  1480.98  1489.80  1490.73
eigval :     1503.19  2898.39  2925.41  2945.13  2953.51  2956.32
eigval :     2961.88  2964.62  2968.53  2971.97  2976.73  2978.02
eigval :     2979.38  2985.06  3015.87

   temp. (K)  partition function   enthalpy   heat capacity  entropy
                                   cal/mol     cal/K/mol   cal/K/mol   J/K/mol
 298.15  VIB  0.647E+05             5099.944     31.854     33.313
         ROT  0.274E+07              888.752      2.981     32.441
         INT  0.178E+12             5988.697     34.835     65.754
         TR   0.262E+28             1481.254      4.968     41.676
         TOT                        7469.9507    39.8028   107.4300   449.4870

       T/K    H(0)-H(T)+PV         H(T)/Eh          T*S/Eh         G(T)/Eh
   ------------------------------------------------------------------------
    298.15    0.119041E-01    0.210963E+00    0.510434E-01    0.159920E+00
   ------------------------------------------------------------------------

         :::::::::::::::::::::::::::::::::::::::::::::::::::::
         ::                  THERMODYNAMIC                  ::
         :::::::::::::::::::::::::::::::::::::::::::::::::::::
         :: total free energy         -30.494949192963 Eh   ::
         ::.................................................::
         :: total energy              -30.654869036267 Eh   ::
         :: zero point energy           0.199059164061 Eh   ::
         :: G(RRHO) w/o ZPVE           -0.039139320757 Eh   ::
         :: G(RRHO) contrib.            0.159919843304 Eh   ::
         :::::::::::::::::::::::::::::::::::::::::::::::::::::

           -------------------------------------------------
          | TOTAL ENERGY              -30.654869036267 Eh   |
          | TOTAL ENTHALPY            -30.443905747959 Eh   |
          | TOTAL FREE ENERGY         -30.494949192963 Eh   |
          | GRADIENT NORM               0.000999588698 Eh/Î± |
          | HOMO-LUMO GAP               9.450834560473 eV   |
           -------------------------------------------------

 * finished run on 2021/11/10 at 01:57:25.491
