   * xtb version 6.4.0 (d4b70c2) compiled by 'ehlert@majestix' on 2021-02-01
          program call               : xtb bromo-cyclohexane-chair.xyz --gbsa methanol --ohess
          number of atoms            :                    18
          number of electrons        :                    36
          charge                     :                     0

   ID    Z sym.   atoms
    1    6 C      1-3, 6, 9, 12
    2    1 H      4, 5, 7, 8, 10, 11, 13-18

        Solvent                        methanol
        Solvent mass                       3.2040E+01 g/mol
          :  Hamiltonian                  GFN2-xTB          :
 * total energy  :   -18.9915824 Eh     change        0.1421085E-13 Eh
 * total energy  :   -18.9915825 Eh     change       -0.7163099E-07 Eh
   *** GEOMETRY OPTIMIZATION CONVERGED AFTER 2 ITERATIONS ***

 final structure:
================
18
 xtb: 6.4.0 (d4b70c2)
C        -1.97303198034693   -0.04721011543960   -0.65058165179910
C        -1.22618006662314   -0.71643158311656    0.50023268296980
C         0.02136869360319    1.41576369997666    0.93077528060205
H        -1.62555878473300    2.56888303508462    0.16596904972554
H        -0.09789811218396    2.85758613524752   -0.67177215673310
C        -0.83316084285084    0.31532063425406    1.55418071213897
H         0.95107110000658    0.98175648908027    0.55458675023190
H         0.28157839106706    2.15884474230656    1.68808190362391
C        -1.11869987973182    1.05347913905270   -1.27390754467584
H        -1.85276035882388   -1.48920381271209    0.95152691259220
H        -0.32520892556987   -1.19941653666381    0.11394348244094
C        -0.72492465789587    2.08526933349907   -0.22024755118255
H        -1.66927624059219    1.53899851790059   -2.08301257111746
H        -0.21552058429048    0.61145249440815   -1.70182627341057
H        -0.28323719676903   -0.16994679877935    2.36388881998679
H        -1.73660160457904    0.75759417873344    1.98126169979598
H        -2.23310127449217   -0.79031469970742   -1.40794099289598
H        -2.90283777411305    0.38649424180011   -0.27424912181732

          :  Hamiltonian                  GFN2-xTB          :
         :: gradient norm              0.000196422190 Eh/a0 ::
         :: HOMO-LUMO gap             13.656651346411 eV    ::
         :: SCC energy               -19.272019899587 Eh    ::
         :: -> dispersion             -0.011249784876 Eh    ::
         :: -> Gsolv                  -0.004878664691 Eh    ::
         :: repulsion energy           0.280409112850 Eh    ::

    * Orbital Energies and Occupations

         #    Occupation            Energy/Eh            Energy/eV
      -------------------------------------------------------------
         1        2.0000           -0.6285867             -17.1047
       ...           ...                  ...                  ...
         6        2.0000           -0.5448111             -14.8251
         7        2.0000           -0.5182514             -14.1023
         8        2.0000           -0.4945254             -13.4567
         9        2.0000           -0.4945020             -13.4561
        10        2.0000           -0.4904317             -13.3453
        11        2.0000           -0.4653906             -12.6639
        12        2.0000           -0.4608994             -12.5417
        13        2.0000           -0.4608410             -12.5401
        14        2.0000           -0.4335529             -11.7976
        15        2.0000           -0.4335375             -11.7972
        16        2.0000           -0.4161819             -11.3249
        17        2.0000           -0.4087258             -11.1220
        18        2.0000           -0.4086588             -11.1202 (HOMO)
        19                          0.0932139               2.5365 (LUMO)
        20                          0.1022709               2.7829
        21                          0.1024025               2.7865
        22                          0.1159327               3.1547
        23                          0.1161744               3.1613
        24                          0.1200698               3.2673
        25                          0.1418489               3.8599
        26                          0.1877675               5.1094
        27                          0.1878092               5.1105
        28                          0.1932395               5.2583
        29                          0.2010697               5.4714
       ...                                ...                  ...
        36                          0.3090233               8.4090
      -------------------------------------------------------------
                  HL-Gap            0.5018727 Eh           13.6567 eV

     #   Z          covCN         q      C6AA      α(0)
     1   6 C        3.805    -0.057    21.590     6.615
     2   6 C        3.805    -0.057    21.590     6.615
     3   6 C        3.805    -0.057    21.590     6.615
     4   1 H        0.924     0.031     2.573     2.509
     5   1 H        0.924     0.026     2.647     2.544
     6   6 C        3.805    -0.057    21.590     6.615
     7   1 H        0.924     0.031     2.573     2.509
     8   1 H        0.924     0.026     2.647     2.544
     9   6 C        3.805    -0.057    21.590     6.615
    10   1 H        0.924     0.026     2.648     2.545
    11   1 H        0.924     0.031     2.573     2.508
    12   6 C        3.805    -0.057    21.590     6.615
    13   1 H        0.924     0.026     2.647     2.544
    14   1 H        0.924     0.031     2.573     2.509
    15   1 H        0.924     0.026     2.647     2.544
    16   1 H        0.924     0.031     2.573     2.509
    17   1 H        0.924     0.026     2.647     2.544
    18   1 H        0.924     0.031     2.573     2.509

Wiberg/Mayer (AO) data.
largest (>0.10) Wiberg bond orders for each atom

     #   Z sym  total        # sym  WBO       # sym  WBO       # sym  WBO
 ---------------------------------------------------------------------------
     1   6 C    3.998 --     9 C    1.009     2 C    1.009    17 H    0.978
                            18 H    0.978
     2   6 C    3.998 --     6 C    1.009     1 C    1.009    10 H    0.978
                            11 H    0.978
     3   6 C    3.998 --     6 C    1.009    12 C    1.009     8 H    0.978
                             7 H    0.978
     4   1 H    0.999 --    12 C    0.978
     5   1 H    0.999 --    12 C    0.978
     6   6 C    3.998 --     2 C    1.009     3 C    1.009    15 H    0.978
                            16 H    0.978
     7   1 H    0.999 --     3 C    0.978
     8   1 H    0.999 --     3 C    0.978
     9   6 C    3.998 --    12 C    1.009     1 C    1.009    13 H    0.978
                            14 H    0.978
    10   1 H    0.999 --     2 C    0.978
    11   1 H    0.999 --     2 C    0.978
    12   6 C    3.998 --     9 C    1.009     3 C    1.009     5 H    0.978
                             4 H    0.978
    13   1 H    0.999 --     9 C    0.978
    14   1 H    0.999 --     9 C    0.978
    15   1 H    0.999 --     6 C    0.978
    16   1 H    0.999 --     6 C    0.978
    17   1 H    0.999 --     1 C    0.978
    18   1 H    0.999 --     1 C    0.978
 ---------------------------------------------------------------------------

molecular dipole:
                 x           y           z       tot (Debye)
 q only:       -0.000      -0.000      -0.000
   full:       -0.000       0.000      -0.000       0.000

 projected vibrational frequencies (cm⁻¹)
eigval :       -0.00    -0.00    -0.00    -0.00     0.00     0.00
eigval :      230.31   231.37   373.82   417.89   418.95   538.85
eigval :      822.17   823.26   868.23   931.42   932.27   936.93
eigval :      937.46  1011.89  1064.33  1095.07  1095.83  1124.61
eigval :     1159.67  1177.77  1248.32  1248.90  1250.52  1251.06
eigval :     1331.21  1345.97  1346.61  1349.89  1359.25  1359.48
eigval :     1481.19  1481.78  1489.98  1490.49  1491.19  1507.35
eigval :     2951.75  2952.24  2952.59  2957.23  2958.08  2961.62
eigval :     2970.10  2970.67  2973.66  2974.79  2975.71  2982.76

   temp. (K)  partition function   enthalpy   heat capacity  entropy
                                   cal/mol     cal/K/mol   cal/K/mol   J/K/mol
 298.15  VIB   4.45                 1791.508     16.608      8.978
         ROT  0.209E+05              888.752      2.981     22.752
         INT  0.932E+05             2680.260     19.589     31.730
         TR   0.747E+27             1481.254      4.968     39.186
         TOT                        4161.5140    24.5570    70.9163   296.7136

       T/K    H(0)-H(T)+PV         H(T)/Eh          T*S/Eh         G(T)/Eh
   ------------------------------------------------------------------------
    298.15    0.663179E-02    0.174775E+00    0.336946E-01    0.141081E+00
   ------------------------------------------------------------------------

         :::::::::::::::::::::::::::::::::::::::::::::::::::::
         ::                  THERMODYNAMIC                  ::
         :::::::::::::::::::::::::::::::::::::::::::::::::::::
         :: total free energy         -18.850501746629 Eh   ::
         ::.................................................::
         :: total energy              -18.991582514204 Eh   ::
         :: zero point energy           0.168143574823 Eh   ::
         :: G(RRHO) w/o ZPVE           -0.027062807248 Eh   ::
         :: G(RRHO) contrib.            0.141080767575 Eh   ::
         :::::::::::::::::::::::::::::::::::::::::::::::::::::

           -------------------------------------------------
          | TOTAL ENERGY              -18.991582514204 Eh   |
          | TOTAL ENTHALPY            -18.816807144711 Eh   |
          | TOTAL FREE ENERGY         -18.850501746629 Eh   |
          | GRADIENT NORM               0.000196422574 Eh/α |
          | HOMO-LUMO GAP              13.656651363613 eV   |
           -------------------------------------------------

 * finished run on 2021/11/09 at 15:20:32.668
