   * xtb version 6.4.0 (d4b70c2) compiled by 'ehlert@majestix' on 2021-02-01
          program call               : xtb init.xyz --gbsa methanol --ohess -chrg -1
          number of atoms            :                    23
          number of electrons        :                    56
          charge                     :                    -1

   ID    Z sym.   atoms
    1    6 C      1-3, 5, 8, 11, 19
    2    1 H      4, 6, 7, 9, 10, 12-17, 21-23
    3   35 Br     18
    4    8 O      20

        Solvent                        methanol
        Solvent mass                       3.2040E+01 g/mol
          :  Hamiltonian                  GFN2-xTB          :
 * total energy  :   -30.5243237 Eh     change       -0.2010623E-09 Eh
 * total energy  :   -30.5517228 Eh     change       -0.2739917E-01 Eh
 * total energy  :   -30.5521260 Eh     change       -0.4031990E-03 Eh
 * total energy  :   -30.5633602 Eh     change       -0.1123419E-01 Eh
 * total energy  :   -30.5648349 Eh     change       -0.1474634E-02 Eh
 * total energy  :   -30.5653662 Eh     change       -0.5313214E-03 Eh
 * total energy  :   -30.5656816 Eh     change       -0.3153833E-03 Eh
 * total energy  :   -30.5663209 Eh     change       -0.6393602E-03 Eh
 * total energy  :   -30.5673708 Eh     change       -0.1049880E-02 Eh
 * total energy  :   -30.5684654 Eh     change       -0.1094592E-02 Eh
 * total energy  :   -30.5716526 Eh     change       -0.1580429E-04 Eh
 * total energy  :   -30.5716694 Eh     change       -0.1676926E-04 Eh
 * total energy  :   -30.5716929 Eh     change       -0.2351989E-04 Eh
 * total energy  :   -30.5716621 Eh     change        0.3078404E-04 Eh
 * total energy  :   -30.5717295 Eh     change       -0.6742829E-04 Eh
 * total energy  :   -30.5717378 Eh     change       -0.8291523E-05 Eh
 * total energy  :   -30.5717439 Eh     change       -0.6094590E-05 Eh
 * total energy  :   -30.5717517 Eh     change       -0.7735598E-05 Eh
 * total energy  :   -30.5717542 Eh     change       -0.2516848E-05 Eh
   *** GEOMETRY OPTIMIZATION CONVERGED AFTER 65 ITERATIONS ***

 final structure:
================
23
 xtb: 6.4.0 (d4b70c2)
C         0.28279863716832   -1.61956551424479   -0.33941198272773
C         0.63849364362968   -0.12938797448216   -0.37251337075762
C        -1.36197814548219    0.49446738356293   -1.75532165089076
H        -0.08870565216440   -0.84712847040125   -2.90476179295886
C        -0.63296119535840    0.71130968725508   -0.42072232553396
H        -1.05733383896073    1.25210021743714   -2.48239705846207
H        -2.44131538222773    0.58351873374238   -1.60460162231519
C        -0.94069399690988   -1.91926200788522   -1.21893730056877
H         1.23563051735913    0.12802611823882    0.50393420045635
H         1.23889799708191    0.07738734376305   -1.26307071700837
C        -1.02070074232774   -0.87972575765102   -2.32019272268175
H        -1.86098768444610   -1.88362916203866   -0.62897955637143
H        -0.85624620037605   -2.92158805507070   -1.64657498863256
H        -0.39067707679415    1.76852308798404   -0.30718631954332
H        -1.28037391015860    0.42158339710319    0.40970929037215
H         1.14077410534939   -2.19068767520829   -0.70020058958501
H         0.07202431653266   -1.93487128863702    0.68439217756492
Br       -2.39510395594231   -1.40153939299399   -3.61335844353264
C         2.02618202238982   -1.47725704591797   -4.63089993329414
O         1.59769032425476   -0.54925078369309   -3.80051846167569
H         1.40938683383234   -1.57313329427497   -5.57701034130368
H         3.08335835754617   -1.31138247842106   -4.99562741656468
H         2.03688292300849   -2.52394174616187   -4.19273240798484

          :  Hamiltonian                  GFN2-xTB          :
         :: gradient norm              0.000534108285 Eh/a0 ::
         :: HOMO-LUMO gap              2.973427562469 eV    ::
         :: SCC energy               -30.890334641028 Eh    ::
         :: -> dispersion             -0.019133436272 Eh    ::
         :: -> Gsolv                  -0.118169390491 Eh    ::
         :: repulsion energy           0.318404566733 Eh    ::

    * Orbital Energies and Occupations

         #    Occupation            Energy/Eh            Energy/eV
      -------------------------------------------------------------
         1        2.0000           -0.8313758             -22.6229
       ...           ...                  ...                  ...
        16        2.0000           -0.4752134             -12.9312
        17        2.0000           -0.4694262             -12.7737
        18        2.0000           -0.4650164             -12.6537
        19        2.0000           -0.4613103             -12.5529
        20        2.0000           -0.4528031             -12.3214
        21        2.0000           -0.4428643             -12.0510
        22        2.0000           -0.4237245             -11.5301
        23        2.0000           -0.4216380             -11.4734
        24        2.0000           -0.4154743             -11.3056
        25        2.0000           -0.3984832             -10.8433
        26        2.0000           -0.3947732             -10.7423
        27        2.0000           -0.3165121              -8.6127
        28        2.0000           -0.3147468              -8.5647 (HOMO)
        29                         -0.2054767              -5.5913 (LUMO)
        30                          0.0339876               0.9248
        31                          0.0451257               1.2279
        32                          0.0500579               1.3621
        33                          0.0602587               1.6397
        34                          0.0760004               2.0681
        35                          0.0859978               2.3401
        36                          0.0958100               2.6071
        37                          0.1146896               3.1209
        38                          0.1167915               3.1781
        39                          0.1260969               3.4313
       ...                                ...                  ...
        55                          0.4022517              10.9458
      -------------------------------------------------------------
                  HL-Gap            0.1092701 Eh            2.9734 eV

     #   Z          covCN         q      C6AA      α(0)
     1   6 C        3.806    -0.052    21.512     6.603
     2   6 C        3.804    -0.056    21.569     6.612
     3   6 C        3.881    -0.047    21.363     6.571
     4   1 H        0.925     0.051     2.309     2.376
     5   6 C        3.805    -0.058    21.622     6.620
     6   1 H        0.924     0.020     2.740     2.589
     7   1 H        0.924     0.048     2.342     2.393
     8   6 C        3.880    -0.045    21.331     6.567
     9   1 H        0.924     0.035     2.510     2.478
    10   1 H        0.924     0.027     2.625     2.533
    11   6 C        3.796     0.063    19.523     6.292
    12   1 H        0.924     0.047     2.358     2.402
    13   1 H        0.924     0.024     2.672     2.556
    14   1 H        0.924     0.038     2.472     2.459
    15   1 H        0.924     0.049     2.329     2.386
    16   1 H        0.924     0.018     2.771     2.603
    17   1 H        0.924     0.045     2.379     2.412
    18  35 Br       1.069    -0.239   191.731    22.326
    19   6 C        3.605     0.205    17.846     6.106
    20   8 O        0.855    -0.823    32.296     7.619
    21   1 H        0.917    -0.117     6.205     3.896
    22   1 H        0.917    -0.114     6.096     3.862
    23   1 H        0.916    -0.119     6.282     3.920

Wiberg/Mayer (AO) data.
largest (>0.10) Wiberg bond orders for each atom

     #   Z sym  total        # sym  WBO       # sym  WBO       # sym  WBO
 ---------------------------------------------------------------------------
     1   6 C    3.997 --     2 C    1.006     8 C    0.995    16 H    0.982
                            17 H    0.979
     2   6 C    3.997 --     5 C    1.010     1 C    1.006    10 H    0.978
                             9 H    0.978
     3   6 C    3.996 --    11 C    1.007     5 C    0.996     6 H    0.982
                             7 H    0.978
     4   1 H    0.997 --    11 C    0.946
     5   6 C    3.997 --     2 C    1.010     3 C    0.996    15 H    0.979
                            14 H    0.979
     6   1 H    1.000 --     3 C    0.982
     7   1 H    0.998 --     3 C    0.978
     8   6 C    3.997 --    11 C    1.012     1 C    0.995    13 H    0.980
                            12 H    0.978
     9   1 H    0.999 --     2 C    0.978
    10   1 H    0.999 --     2 C    0.978
    11   6 C    3.928 --     8 C    1.012     3 C    1.007     4 H    0.946
                            18 Br   0.907
    12   1 H    0.998 --     8 C    0.978
    13   1 H    0.999 --     8 C    0.980
    14   1 H    0.999 --     5 C    0.979
    15   1 H    0.998 --     5 C    0.979
    16   1 H    1.000 --     1 C    0.982
    17   1 H    0.998 --     1 C    0.979
    18  35 Br   0.968 --    11 C    0.907
    19   6 C    3.977 --    20 O    1.163    22 H    0.939    21 H    0.937
                            23 H    0.936
    20   8 O    1.368 --    19 C    1.163
    21   1 H    0.986 --    19 C    0.937
    22   1 H    0.987 --    19 C    0.939
    23   1 H    0.986 --    19 C    0.936
 ---------------------------------------------------------------------------

molecular dipole:
                 x           y           z       tot (Debye)
 q only:       -2.431       1.884       8.481
   full:       -1.062       1.904       8.523      22.360

 projected vibrational frequencies (cm⁻¹)
eigval :       -0.00    -0.00    -0.00     0.00     0.00     0.00
eigval :      -66.48    32.94    49.70    60.96    71.88   102.31
eigval :      133.29   172.52   222.53   248.61   269.62   397.62
eigval :      460.39   528.57   694.43   804.70   851.46   908.91
eigval :      936.67   953.27   975.16   993.73  1097.35  1117.02
eigval :     1124.01  1127.57  1143.60  1158.90  1180.00  1182.75
eigval :     1207.35  1223.08  1241.98  1256.90  1280.44  1310.00
eigval :     1332.57  1336.54  1346.34  1351.20  1362.40  1477.48
eigval :     1479.50  1480.65  1491.10  1500.25  1511.59  1515.93
eigval :     1517.00  2323.87  2352.33  2550.74  2836.66  2946.75
eigval :     2950.86  2959.89  2966.52  2968.69  2969.02  2974.71
eigval :     2979.84  2984.72  2992.55

   temp. (K)  partition function   enthalpy   heat capacity  entropy
                                   cal/mol     cal/K/mol   cal/K/mol   J/K/mol
 298.15  VIB  0.209E+05             5258.023     31.432     34.794
         ROT  0.133E+07              888.752      2.981     30.997
         INT  0.278E+11             6146.776     34.413     65.791
         TR   0.262E+28             1481.254      4.968     41.676
         TOT                        7628.0297    39.3811   107.4671   449.6424

       T/K    H(0)-H(T)+PV         H(T)/Eh          T*S/Eh         G(T)/Eh
   ------------------------------------------------------------------------
    298.15    0.121560E-01    0.205755E+00    0.510611E-01    0.154693E+00
   ------------------------------------------------------------------------

         :::::::::::::::::::::::::::::::::::::::::::::::::::::
         ::                  THERMODYNAMIC                  ::
         :::::::::::::::::::::::::::::::::::::::::::::::::::::
         :: total free energy         -30.417060720586 Eh   ::
         ::.................................................::
         :: total energy              -30.571754167214 Eh   ::
         :: zero point energy           0.193598502849 Eh   ::
         :: G(RRHO) w/o ZPVE           -0.038905056221 Eh   ::
         :: G(RRHO) contrib.            0.154693446628 Eh   ::
         :::::::::::::::::::::::::::::::::::::::::::::::::::::

           -------------------------------------------------
          | TOTAL ENERGY              -30.571754167214 Eh   |
          | TOTAL ENTHALPY            -30.365999625245 Eh   |
          | TOTAL FREE ENERGY         -30.417060720586 Eh   |
          | GRADIENT NORM               0.000533963571 Eh/α |
          | HOMO-LUMO GAP               2.973391998795 eV   |
           -------------------------------------------------

 * finished run on 2021/11/09 at 17:25:26.109
