   * xtb version 6.4.0 (d4b70c2) compiled by 'ehlert@majestix' on 2021-02-01
          program call               : xtb bromo-cyclohexane-chair.xyz --gbsa methanol --ohess
          number of atoms            :                    18
          number of electrons        :                    42
          charge                     :                     0

   ID    Z sym.   atoms
    1    6 C      1-3, 5, 8, 11
    2    1 H      4, 6, 7, 9, 10, 12-17
    3   35 Br     18

        Solvent                        methanol
        Solvent mass                       3.2040E+01 g/mol
          :  Hamiltonian                  GFN2-xTB          :
 * total energy  :   -22.5763333 Eh     change       -0.1934062E-09 Eh
 * total energy  :   -22.5763391 Eh     change       -0.5813075E-05 Eh
 * total energy  :   -22.5763398 Eh     change       -0.6972641E-06 Eh
   *** GEOMETRY OPTIMIZATION CONVERGED AFTER 3 ITERATIONS ***

 final structure:
================
18
 xtb: 6.4.0 (d4b70c2)
C         2.36154403162779   -1.25301275011661   -0.20153840822370
C         3.03962230480486    0.00009312898331    0.34534893874698
C         0.87285671251926    1.25520589484177    0.14938801035168
H         0.25763777294779   -0.00005517745922   -1.50026157877019
C         2.36128996735845    1.25305207327887   -0.20158460914489
H         0.39005366127226    2.14406363642870   -0.26234634069680
H         0.75019025940908    1.27592125943269    1.23503773421059
C         0.87309257883777   -1.25534998226049    0.14933564926439
H         2.97794557955104    0.00009994865496    1.43576432789076
H         4.09521383168877    0.00018244065551    0.06890370421949
C         0.22879399032650   -0.00011159464360   -0.40850598935300
H         0.75036681043491   -1.27612875273338    1.23497283246904
H         0.39042582815772   -2.14425568329277   -0.26246130146581
H         2.47733627120471    1.28664727507144   -1.28728573162916
H         2.82898302060750    2.14669059634809    0.21401645295049
H         2.47766031086241   -1.28671978219707   -1.28722315431479
H         2.82935380068529   -2.14654206987757    0.21415911505342
Br       -1.72311543769611    0.00010339778537    0.02357259474151

          :  Hamiltonian                  GFN2-xTB          :
         :: gradient norm              0.000632146010 Eh/a0 ::
         :: HOMO-LUMO gap              4.987030049311 eV    ::
         :: SCC energy               -22.845589947195 Eh    ::
         :: -> dispersion             -0.013407391674 Eh    ::
         :: -> Gsolv                  -0.009858408576 Eh    ::
         :: repulsion energy           0.269207088998 Eh    ::

    * Orbital Energies and Occupations

         #    Occupation            Energy/Eh            Energy/eV
      -------------------------------------------------------------
         1        2.0000           -0.8329694             -22.6663
       ...           ...                  ...                  ...
         9        2.0000           -0.5158781             -14.0378
        10        2.0000           -0.5131325             -13.9630
        11        2.0000           -0.5026657             -13.6782
        12        2.0000           -0.4887865             -13.3006
        13        2.0000           -0.4785643             -13.0224
        14        2.0000           -0.4778109             -13.0019
        15        2.0000           -0.4574218             -12.4471
        16        2.0000           -0.4499268             -12.2431
        17        2.0000           -0.4319374             -11.7536
        18        2.0000           -0.4288351             -11.6692
        19        2.0000           -0.4286393             -11.6639
        20        2.0000           -0.4027587             -10.9596
        21        2.0000           -0.4023625             -10.9488 (HOMO)
        22                         -0.2190922              -5.9618 (LUMO)
        23                          0.0282795               0.7695
        24                          0.0406296               1.1056
        25                          0.0488362               1.3289
        26                          0.0515599               1.4030
        27                          0.0762919               2.0760
        28                          0.0816417               2.2216
        29                          0.0892048               2.4274
        30                          0.1065030               2.8981
        31                          0.1236429               3.3645
        32                          0.1344768               3.6593
       ...                                ...                  ...
        44                          0.3486647               9.4876
      -------------------------------------------------------------
                  HL-Gap            0.1832704 Eh            4.9870 eV

     #   Z          covCN         q      C6AA      α(0)
     1   6 C        3.807    -0.061    21.664     6.626
     2   6 C        3.805    -0.063    21.705     6.632
     3   6 C        3.862    -0.056    21.531     6.599
     4   1 H        0.925     0.055     2.261     2.352
     5   6 C        3.807    -0.061    21.664     6.626
     6   1 H        0.924     0.043     2.413     2.429
     7   1 H        0.924     0.049     2.337     2.391
     8   6 C        3.862    -0.056    21.531     6.599
     9   1 H        0.924     0.041     2.432     2.439
    10   1 H        0.924     0.041     2.439     2.442
    11   6 C        3.795     0.070    19.414     6.274
    12   1 H        0.924     0.049     2.337     2.391
    13   1 H        0.924     0.043     2.413     2.429
    14   1 H        0.924     0.039     2.464     2.455
    15   1 H        0.924     0.045     2.388     2.417
    16   1 H        0.924     0.039     2.464     2.455
    17   1 H        0.924     0.045     2.388     2.417
    18  35 Br       1.023    -0.261   192.338    22.361

Wiberg/Mayer (AO) data.
largest (>0.10) Wiberg bond orders for each atom

     #   Z sym  total        # sym  WBO       # sym  WBO       # sym  WBO
 ---------------------------------------------------------------------------
     1   6 C    3.996 --     2 C    1.010     8 C    0.996    16 H    0.977
                            17 H    0.975
     2   6 C    3.997 --     1 C    1.010     5 C    1.010     9 H    0.977
                            10 H    0.976
     3   6 C    3.994 --    11 C    1.010     5 C    0.996     6 H    0.976
                             7 H    0.975
     4   1 H    0.997 --    11 C    0.968
     5   6 C    3.996 --     2 C    1.010     3 C    0.996    14 H    0.977
                            15 H    0.975
     6   1 H    0.998 --     3 C    0.976
     7   1 H    0.998 --     3 C    0.975
     8   6 C    3.994 --    11 C    1.010     1 C    0.996    13 H    0.976
                            12 H    0.975
     9   1 H    0.998 --     2 C    0.977
    10   1 H    0.997 --     2 C    0.976
    11   6 C    3.931 --     3 C    1.010     8 C    1.010     4 H    0.968
                            18 Br   0.908
    12   1 H    0.998 --     8 C    0.975
    13   1 H    0.998 --     8 C    0.976
    14   1 H    0.998 --     5 C    0.977
    15   1 H    0.998 --     5 C    0.975
    16   1 H    0.998 --     1 C    0.977
    17   1 H    0.998 --     1 C    0.975
    18  35 Br   0.984 --    11 C    0.908
 ---------------------------------------------------------------------------

molecular dipole:
                 x           y           z       tot (Debye)
 q only:        1.408      -0.000      -0.098
   full:        1.834      -0.000      -0.248       4.703

 projected vibrational frequencies (cm⁻¹)
eigval :       -0.00    -0.00    -0.00     0.00     0.00     0.00
eigval :      125.44   207.16   228.39   239.13   315.52   419.39
eigval :      428.59   499.65   671.60   821.04   854.65   893.93
eigval :      930.07   930.12   966.88   987.88  1063.86  1084.64
eigval :     1104.54  1134.05  1134.67  1196.93  1204.62  1239.60
eigval :     1240.05  1252.81  1290.98  1331.37  1336.10  1338.95
eigval :     1347.85  1352.90  1475.87  1481.15  1483.41  1486.26
eigval :     1498.67  2949.77  2964.38  2964.81  2970.87  2972.73
eigval :     2979.89  2982.22  2983.37  2985.18  2991.50  2996.10

   temp. (K)  partition function   enthalpy   heat capacity  entropy
                                   cal/mol     cal/K/mol   cal/K/mol   J/K/mol
 298.15  VIB   16.9                 2655.888     20.890     14.522
         ROT  0.507E+06              888.752      2.981     29.085
         INT  0.858E+07             3544.641     23.871     43.606
         TR   0.201E+28             1481.254      4.968     41.157
         TOT                        5025.8945    28.8392    84.7631   354.6490

       T/K    H(0)-H(T)+PV         H(T)/Eh          T*S/Eh         G(T)/Eh
   ------------------------------------------------------------------------
    298.15    0.800927E-02    0.165976E+00    0.402737E-01    0.125703E+00
   ------------------------------------------------------------------------

         :::::::::::::::::::::::::::::::::::::::::::::::::::::
         ::                  THERMODYNAMIC                  ::
         :::::::::::::::::::::::::::::::::::::::::::::::::::::
         :: total free energy         -22.450637173135 Eh   ::
         ::.................................................::
         :: total energy              -22.576339787329 Eh   ::
         :: zero point energy           0.157967044435 Eh   ::
         :: G(RRHO) w/o ZPVE           -0.032264430241 Eh   ::
         :: G(RRHO) contrib.            0.125702614193 Eh   ::
         :::::::::::::::::::::::::::::::::::::::::::::::::::::

           -------------------------------------------------
          | TOTAL ENERGY              -22.576339787329 Eh   |
          | TOTAL ENTHALPY            -22.410363470266 Eh   |
          | TOTAL FREE ENERGY         -22.450637173135 Eh   |
          | GRADIENT NORM               0.000631796102 Eh/α |
          | HOMO-LUMO GAP               4.987040144479 eV   |
           -------------------------------------------------

 * finished run on 2021/11/09 at 16:17:31.153
