   * xtb version 6.3.2 (30e43eb) compiled by 'schneider@apollo14' on 2020-08-08
          program call               : xtb final.xyz --chrg -1 --gbsa methanol --ohess
          number of atoms            :                    23
          number of electrons        :                    56
          charge                     :                    -1

   ID    Z sym.   atoms
    1    6 C      1-3, 5, 8, 11, 20
    2    1 H      4, 6, 7, 9, 10, 12-17, 21-23
    3   35 Br     18
    4    8 O      19

        Solvent                        methanol
        Solvent mass                       3.2040E+01 g/mol
          :  Hamiltonian                  GFN2-xTB          :
 * total energy  :   -30.5305733 Eh     change       -0.1404814E-09 Eh
 * total energy  :   -30.6075011 Eh     change       -0.7692784E-01 Eh
 * total energy  :   -30.6383448 Eh     change       -0.3084367E-01 Eh
 * total energy  :   -30.6427938 Eh     change       -0.4449050E-02 Eh
 * total energy  :   -30.6437907 Eh     change       -0.9968606E-03 Eh
 * total energy  :   -30.6451657 Eh     change       -0.1375001E-02 Eh
 * total energy  :   -30.6454955 Eh     change       -0.3298539E-03 Eh
 * total energy  :   -30.6459705 Eh     change       -0.4749609E-03 Eh
 * total energy  :   -30.6463852 Eh     change       -0.4146975E-03 Eh
 * total energy  :   -30.6466859 Eh     change       -0.3006984E-03 Eh
 * total energy  :   -30.6484849 Eh     change       -0.1547478E-04 Eh
 * total energy  :   -30.6484955 Eh     change       -0.1060944E-04 Eh
 * total energy  :   -30.6485061 Eh     change       -0.1058261E-04 Eh
 * total energy  :   -30.6485198 Eh     change       -0.1373925E-04 Eh
 * total energy  :   -30.6485366 Eh     change       -0.1676733E-04 Eh
 * total energy  :   -30.6485524 Eh     change       -0.1584746E-04 Eh
 * total energy  :   -30.6485637 Eh     change       -0.1129412E-04 Eh
 * total energy  :   -30.6485696 Eh     change       -0.5852485E-05 Eh
 * total energy  :   -30.6485732 Eh     change       -0.3574916E-05 Eh
   *** GEOMETRY OPTIMIZATION CONVERGED AFTER 54 ITERATIONS ***

 final structure:
================
23
 xtb: 6.3.2 (30e43eb)
C         2.78104934120159   -1.23140889452965   -0.30292182131693
C         2.99856591924488   -0.05376679284665    0.63888794077285
C         1.64510931787873    1.43345600456689   -0.86214364099183
H         0.05306932770931    0.33219637599272   -1.76341187107732
C         2.98936307187728    1.24317258377915   -0.16047451441938
H         1.67593730649152    2.30709536403466   -1.51791584766350
H         0.88566641839496    1.62495320140010   -0.09947537343909
C         1.42676192862784   -1.11619691798982   -1.00175856445469
H         2.19824740138995   -0.02890899006069    1.38290672532361
H         3.94979721856741   -0.16387777695928    1.16349836711129
C         1.14577224629393    0.23289464842111   -1.68861899115465
H         0.64226590413548   -1.25433136387870   -0.25304973527475
H         1.31024811578107   -1.90822068417734   -1.74564475813836
H         3.80601503614599    1.22339177990209   -0.88367977718550
H         3.15315953157858    2.09439265683221    0.50455975115490
H         3.59358329331141   -1.26098133627783   -1.03024104934477
H         2.79974625633105   -2.16852155157270    0.25832700461893
Br       -3.01330261021696    0.51579507417481    1.40494656310258
O         1.50391829123094    0.28125102207984   -3.06594349902088
C         2.86308768628651    0.12924258104817   -3.41968506653946
H         2.88253478986255    0.21955311858587   -4.50532197899518
H         3.48768234464717    0.91320608752267   -2.98424138424906
H         3.24831186322004   -0.85378619004910   -3.13627847880859

          :  Hamiltonian                  GFN2-xTB          :
         :: gradient norm              0.000323042947 Eh/a0 ::
         :: HOMO-LUMO gap              9.617766461598 eV    ::
         :: SCC energy               -30.973302727020 Eh    ::
         :: -> dispersion             -0.016794079411 Eh    ::
         :: -> Gsolv                  -0.115155194520 Eh    ::
         :: repulsion energy           0.324594470300 Eh    ::

    * Orbital Energies and Occupations

         #    Occupation            Energy/Eh            Energy/eV
      -------------------------------------------------------------
         1        2.0000           -0.7405629             -20.1517
       ...           ...                  ...                  ...
        16        2.0000           -0.4773668             -12.9898
        17        2.0000           -0.4757911             -12.9469
        18        2.0000           -0.4632766             -12.6064
        19        2.0000           -0.4482669             -12.1980
        20        2.0000           -0.4472245             -12.1696
        21        2.0000           -0.4410272             -12.0010
        22        2.0000           -0.4244130             -11.5489
        23        2.0000           -0.4167917             -11.3415
        24        2.0000           -0.4103984             -11.1675
        25        2.0000           -0.3860169             -10.5041
        26        2.0000           -0.3337823              -9.0827
        27        2.0000           -0.3337252              -9.0811
        28        2.0000           -0.3336481              -9.0790 (HOMO)
        29                          0.0197984               0.5387 (LUMO)
        30                          0.0721160               1.9624
        31                          0.0814451               2.2162
        32                          0.0844498               2.2980
        33                          0.0989605               2.6929
        34                          0.1057814               2.8785
        35                          0.1064219               2.8959
        36                          0.1283816               3.4934
        37                          0.1392044               3.7879
        38                          0.1531529               4.1675
        39                          0.1771068               4.8193
       ...                                ...                  ...
        55                          0.3143823               8.5548
      -------------------------------------------------------------
                  HL-Gap            0.3534466 Eh            9.6178 eV

     #   Z          covCN         q      C6AA      Î±(0)
     1   6 C        3.804    -0.057    21.588     6.615
     2   6 C        3.806    -0.058    21.622     6.620
     3   6 C        3.802    -0.064    21.721     6.635
     4   1 H        0.923     0.022     2.706     2.572
     5   6 C        3.804    -0.056    21.571     6.612
     6   1 H        0.924     0.036     2.498     2.472
     7   1 H        0.924     0.026     2.649     2.545
     8   6 C        3.802    -0.063    21.715     6.635
     9   1 H        0.924     0.027     2.624     2.533
    10   1 H        0.924     0.040     2.455     2.450
    11   6 C        3.730     0.114    18.803     6.190
    12   1 H        0.924     0.026     2.640     2.541
    13   1 H        0.924     0.036     2.499     2.472
    14   1 H        0.924     0.041     2.437     2.441
    15   1 H        0.924     0.033     2.544     2.494
    16   1 H        0.924     0.042     2.418     2.432
    17   1 H        0.924     0.034     2.535     2.490
    18  35 Br       0.000    -1.000   195.297    22.457
    19   8 O        1.698    -0.358    20.036     6.043
    20   6 C        3.632     0.039    20.314     6.488
    21   1 H        0.925     0.061     2.184     2.311
    22   1 H        0.924     0.039     2.457     2.451
    23   1 H        0.924     0.039     2.464     2.455

Wiberg/Mayer (AO) data.
largest (>0.10) Wiberg bond orders for each atom

     #   Z sym  total        # sym  WBO       # sym  WBO       # sym  WBO
 ---------------------------------------------------------------------------
     1   6 C    3.998 --     2 C    1.009     8 C    1.008    17 H    0.977
                            16 H    0.973
     2   6 C    3.998 --     1 C    1.009     5 C    1.009     9 H    0.978
                            10 H    0.977
     3   6 C    3.996 --     5 C    1.008    11 C    0.983     7 H    0.978
                             6 H    0.976
     4   1 H    1.000 --    11 C    0.963
     5   6 C    3.998 --     2 C    1.009     3 C    1.008    15 H    0.977
                            14 H    0.972
     6   1 H    0.999 --     3 C    0.976
     7   1 H    0.999 --     3 C    0.978
     8   6 C    3.996 --     1 C    1.008    11 C    0.984    12 H    0.978
                            13 H    0.975
     9   1 H    0.999 --     2 C    0.978
    10   1 H    0.998 --     2 C    0.977
    11   6 C    3.949 --     8 C    0.984     3 C    0.983    19 O    0.967
                             4 H    0.963
    12   1 H    0.999 --     8 C    0.978
    13   1 H    0.999 --     8 C    0.975
    14   1 H    0.998 --     5 C    0.972
    15   1 H    0.999 --     5 C    0.977
    16   1 H    0.998 --     1 C    0.973
    17   1 H    0.999 --     1 C    0.977
    18  35 Br   0.000 --    19   8 O    2.055 --    20 C    0.985    11 C    0.967
    20   6 C    3.947 --    19 O    0.985    21 H    0.979    23 H    0.974
                            22 H    0.974
    21   1 H    0.996 --    20 C    0.979
    22   1 H    0.998 --    20 C    0.974
    23   1 H    0.998 --    20 C    0.974
 ---------------------------------------------------------------------------

molecular dipole:
                 x           y           z       tot (Debye)
 q only:        6.302      -1.076      -2.225
   full:        6.178      -1.073      -2.112      16.817

 projected vibrational frequencies (cm-1)
eigval :       -0.00    -0.00    -0.00    -0.00     0.00     0.00
eigval :       17.93    28.12    36.04    43.35   145.25   181.73
eigval :      242.45   257.40   332.02   382.91   391.82   443.35
eigval :      491.35   706.85   768.67   799.39   883.27   907.62
eigval :      925.41   943.30   956.00   994.58  1058.78  1095.40
eigval :     1098.35  1113.39  1121.19  1138.48  1148.55  1163.53
eigval :     1175.45  1244.53  1250.79  1267.56  1308.56  1332.47
eigval :     1345.38  1354.58  1356.67  1361.26  1373.97  1388.54
eigval :     1465.38  1468.66  1476.20  1479.27  1489.23  1490.79
eigval :     1502.41  2885.98  2935.34  2948.58  2957.30  2958.74
eigval :     2960.64  2961.93  2964.75  2976.19  2976.98  2981.19
eigval :     2986.49  2991.00  3005.85

   temp. (K)  partition function   enthalpy   heat capacity  entropy
                                   cal/mol     cal/K/mol   cal/K/mol   J/K/mol
 298.15  VIB  0.591E+05             5119.484     31.817     32.915
         ROT  0.255E+07              888.752      2.981     32.297
         INT  0.151E+12             6008.236     34.798     65.212
         TR   0.262E+28             1481.254      4.968     41.676
         TOT                        7489.4899    39.7663   106.8877   447.2182

       T/K    H(0)-H(T)+PV         H(T)/Eh          T*S/Eh         G(T)/Eh
   ------------------------------------------------------------------------
    298.15    0.119353E-01    0.211136E+00    0.507858E-01    0.160350E+00
   ------------------------------------------------------------------------

         :::::::::::::::::::::::::::::::::::::::::::::::::::::
         ::                  THERMODYNAMIC                  ::
         :::::::::::::::::::::::::::::::::::::::::::::::::::::
         :: total free energy         -30.488222658830 Eh   ::
         ::.................................................::
         :: total energy              -30.648573155453 Eh   ::
         :: zero point energy           0.199201041158 Eh   ::
         :: G(RRHO) w/o ZPVE           -0.038850544535 Eh   ::
         :: G(RRHO) contrib.            0.160350496623 Eh   ::
         :::::::::::::::::::::::::::::::::::::::::::::::::::::

           -------------------------------------------------
          | TOTAL ENERGY              -30.648573155453 Eh   |
          | TOTAL ENTHALPY            -30.437436852369 Eh   |
          | TOTAL FREE ENERGY         -30.488222658830 Eh   |
          | GRADIENT NORM               0.000323063071 Eh/Î± |
          | HOMO-LUMO GAP               9.617770505340 eV   |
           -------------------------------------------------

 * finished run on 2021/11/10 at 00:40:11.066
