   * xtb version 6.3.2 (30e43eb) compiled by 'schneider@apollo14' on 2020-08-08
          program call               : xtb init.xyz --chrg -1 --gbsa methanol --ohess
          number of atoms            :                    23
          number of electrons        :                    56
          charge                     :                    -1

   ID    Z sym.   atoms
    1    6 C      1-3, 5, 8, 11, 20
    2    1 H      4, 6, 7, 9, 10, 12-17, 21-23
    3   35 Br     18
    4    8 O      19

        Solvent                        methanol
        Solvent mass                       3.2040E+01 g/mol
          :  Hamiltonian                  GFN2-xTB          :
 * total energy  :   -30.5809779 Eh     change       -0.8082068E-10 Eh
   *** GEOMETRY OPTIMIZATION CONVERGED AFTER 1 ITERATIONS ***

 final structure:
================
23
 xtb: 6.3.2 (30e43eb)
C         2.85335463983881   -1.18440352890687   -0.06540047157359
C         2.96731817713400   -0.01964777517649    0.91334966978032
C         1.28666169508953    1.26379364541120   -0.43270167405862
H         1.93704775501123    0.23759024592715   -2.22817452181810
C         2.68059637588207    1.29290551342454    0.19027646601601
H         1.09536526934691    2.20139475820182   -0.96134837404292
H         0.52626350425610    1.14310495085385    0.34539347249027
C         1.46129566913563   -1.21950638550467   -0.69253380312862
H         2.24977755877617   -0.15451410747382    1.72648696804586
H         3.97109173811858    0.00548080083088    1.34075065470383
C         1.22118709142478    0.09923335605485   -1.40190979762304
H         0.70128244948352   -1.36969553440225    0.08092177143825
H         1.39531136839503   -2.04653207439341   -1.40554886901463
H         3.41015362853106    1.43150033052889   -0.61284516988948
H         2.75771777968704    2.13590655857116    0.87956545833272
H         3.58699174986434   -1.05637984480933   -0.86690991518364
H         3.05323096345239   -2.13259084609400    0.43808127325610
Br       -0.54916534726731    0.06096628754325   -2.24295288053295
O         3.40970593901212    0.45428859682447   -3.46105348473262
C         3.38208256125660   -0.20678973651873   -4.59917957657973
H         2.44603176997047   -0.03253187094191   -5.21474361070403
H         4.23361780486458    0.04885110747359   -5.29744596540646
H         3.43735003975284   -1.33425275959397   -4.48193988938672

          :  Hamiltonian                  GFN2-xTB          :
         :: gradient norm              0.000235438950 Eh/a0 ::
         :: HOMO-LUMO gap              2.989884093117 eV    ::
         :: SCC energy               -30.901296851908 Eh    ::
         :: -> dispersion             -0.018944325121 Eh    ::
         :: -> Gsolv                  -0.118145137200 Eh    ::
         :: repulsion energy           0.320149271810 Eh    ::

    * Orbital Energies and Occupations

         #    Occupation            Energy/Eh            Energy/eV
      -------------------------------------------------------------
         1        2.0000           -0.8311649             -22.6171
       ...           ...                  ...                  ...
        16        2.0000           -0.4803740             -13.0716
        17        2.0000           -0.4726973             -12.8627
        18        2.0000           -0.4715405             -12.8313
        19        2.0000           -0.4531001             -12.3295
        20        2.0000           -0.4433036             -12.0629
        21        2.0000           -0.4416456             -12.0178
        22        2.0000           -0.4255604             -11.5801
        23        2.0000           -0.4240402             -11.5387
        24        2.0000           -0.4223229             -11.4920
        25        2.0000           -0.3984851             -10.8433
        26        2.0000           -0.3958147             -10.7707
        27        2.0000           -0.3166012              -8.6152
        28        2.0000           -0.3148387              -8.5672 (HOMO)
        29                         -0.2049625              -5.5773 (LUMO)
        30                          0.0391778               1.0661
        31                          0.0465914               1.2678
        32                          0.0539897               1.4691
        33                          0.0627368               1.7072
        34                          0.0860762               2.3423
        35                          0.0922372               2.5099
        36                          0.0949641               2.5841
        37                          0.1133995               3.0858
        38                          0.1152928               3.1373
        39                          0.1283026               3.4913
       ...                                ...                  ...
        55                          0.3988430              10.8531
      -------------------------------------------------------------
                  HL-Gap            0.1098762 Eh            2.9899 eV

     #   Z          covCN         q      C6AA      Î±(0)
     1   6 C        3.809    -0.052    21.506     6.601
     2   6 C        3.806    -0.060    21.650     6.624
     3   6 C        3.885    -0.045    21.332     6.566
     4   1 H        0.924     0.050     2.322     2.383
     5   6 C        3.809    -0.055    21.552     6.608
     6   1 H        0.924     0.025     2.651     2.546
     7   1 H        0.924     0.047     2.361     2.403
     8   6 C        3.886    -0.042    21.278     6.558
     9   1 H        0.924     0.048     2.345     2.395
    10   1 H        0.924     0.039     2.461     2.453
    11   6 C        3.800     0.062    19.541     6.294
    12   1 H        0.924     0.046     2.373     2.409
    13   1 H        0.924     0.019     2.755     2.596
    14   1 H        0.924     0.026     2.645     2.543
    15   1 H        0.924     0.043     2.409     2.427
    16   1 H        0.924     0.022     2.708     2.573
    17   1 H        0.924     0.040     2.448     2.447
    18  35 Br       1.073    -0.242   191.816    22.331
    19   8 O        0.855    -0.824    32.312     7.621
    20   6 C        3.605     0.205    17.849     6.106
    21   1 H        0.917    -0.118     6.224     3.902
    22   1 H        0.917    -0.114     6.081     3.857
    23   1 H        0.916    -0.119     6.285     3.921

Wiberg/Mayer (AO) data.
largest (>0.10) Wiberg bond orders for each atom

     #   Z sym  total        # sym  WBO       # sym  WBO       # sym  WBO
 ---------------------------------------------------------------------------
     1   6 C    3.997 --     2 C    1.010     8 C    0.998    16 H    0.978
                            17 H    0.975
     2   6 C    3.997 --     5 C    1.010     1 C    1.010    10 H    0.977
                             9 H    0.976
     3   6 C    3.996 --    11 C    1.012     5 C    0.998     6 H    0.978
                             7 H    0.975
     4   1 H    0.998 --    11 C    0.944
     5   6 C    3.997 --     2 C    1.010     3 C    0.998    14 H    0.978
                            15 H    0.975
     6   1 H    0.999 --     3 C    0.978
     7   1 H    0.998 --     3 C    0.975
     8   6 C    3.997 --    11 C    1.013     1 C    0.998    13 H    0.979
                            12 H    0.975
     9   1 H    0.998 --     2 C    0.976
    10   1 H    0.998 --     2 C    0.977
    11   6 C    3.928 --     8 C    1.013     3 C    1.012     4 H    0.944
                            18 Br   0.902
    12   1 H    0.998 --     8 C    0.975
    13   1 H    1.000 --     8 C    0.979
    14   1 H    0.999 --     5 C    0.978
    15   1 H    0.998 --     5 C    0.975
    16   1 H    1.000 --     1 C    0.978
    17   1 H    0.998 --     1 C    0.975
    18  35 Br   0.965 --    11 C    0.902
    19   8 O    1.367 --    20 C    1.164
    20   6 C    3.977 --    19 O    1.164    22 H    0.939    21 H    0.937
                            23 H    0.936
    21   1 H    0.986 --    20 C    0.937
    22   1 H    0.987 --    20 C    0.939
    23   1 H    0.986 --    20 C    0.936
 ---------------------------------------------------------------------------

molecular dipole:
                 x           y           z       tot (Debye)
 q only:       -5.297      -0.467       7.780
   full:       -3.997      -0.595       7.376      21.376

 projected vibrational frequencies (cm-1)
eigval :       -0.00    -0.00    -0.00    -0.00     0.00     0.00
eigval :       23.88    30.86    53.81    70.00    92.62   122.95
eigval :      165.70   214.66   237.30   252.98   326.59   423.17
eigval :      428.05   504.17   693.22   829.24   861.88   896.91
eigval :      935.83   941.55   971.52   995.42  1079.43  1089.41
eigval :     1106.41  1127.91  1139.65  1149.68  1182.69  1184.59
eigval :     1203.90  1230.81  1243.42  1245.70  1276.96  1307.98
eigval :     1331.15  1344.21  1348.99  1357.88  1360.33  1474.80
eigval :     1478.45  1480.26  1484.03  1488.20  1499.92  1516.91
eigval :     1519.93  2321.09  2352.94  2550.91  2824.69  2940.29
eigval :     2945.02  2956.62  2959.16  2962.10  2966.31  2970.89
eigval :     2974.26  2977.03  2985.59

   temp. (K)  partition function   enthalpy   heat capacity  entropy
                                   cal/mol     cal/K/mol   cal/K/mol   J/K/mol
 298.15  VIB  0.805E+05             5628.753     33.271     37.120
         ROT  0.137E+07              888.752      2.981     31.061
         INT  0.110E+12             6517.506     36.252     68.181
         TR   0.262E+28             1481.254      4.968     41.676
         TOT                        7998.7595    41.2201   109.8572   459.6426

       T/K    H(0)-H(T)+PV         H(T)/Eh          T*S/Eh         G(T)/Eh
   ------------------------------------------------------------------------
    298.15    0.127468E-01    0.206420E+00    0.521967E-01    0.154224E+00
   ------------------------------------------------------------------------

         :::::::::::::::::::::::::::::::::::::::::::::::::::::
         ::                  THERMODYNAMIC                  ::
         :::::::::::::::::::::::::::::::::::::::::::::::::::::
         :: total free energy         -30.426754312993 Eh   ::
         ::.................................................::
         :: total energy              -30.580977931853 Eh   ::
         :: zero point energy           0.193673491028 Eh   ::
         :: G(RRHO) w/o ZPVE           -0.039449872168 Eh   ::
         :: G(RRHO) contrib.            0.154223618860 Eh   ::
         :::::::::::::::::::::::::::::::::::::::::::::::::::::

           -------------------------------------------------
          | TOTAL ENERGY              -30.580977931853 Eh   |
          | TOTAL ENTHALPY            -30.374557606224 Eh   |
          | TOTAL FREE ENERGY         -30.426754312993 Eh   |
          | GRADIENT NORM               0.000235452188 Eh/Î± |
          | HOMO-LUMO GAP               2.989883373623 eV   |
           -------------------------------------------------

 * finished run on 2021/11/10 at 00:39:57.576
